LAMMPS (23 Jun 2022 - Update 2)
# general input for CviUPO SASA simulations
# .....

units		real #define unit sys -> real is vital for reax
atom_style	full # reax needs charge or full
dimension       3
boundary        p p p
############### read data
read_data	data.Cvi_nowater #structure file
Reading data file ...
  orthogonal box = (-38.6636 -38.6636 -38.6636) to (38.6636 38.6636 38.6636)
  1 by 1 by 1 MPI processor grid
  reading atoms ...
  3720 atoms
  reading velocities ...
  3720 velocities
Finding 1-2 1-3 1-4 neighbors ...
  special bond factors lj:    0        0        0       
  special bond factors coul:  0        0        0       
     0 = max # of 1-2 neighbors
     0 = max # of 1-3 neighbors
     0 = max # of 1-4 neighbors
     1 = max # of special neighbors
  special bonds CPU = 0.000 seconds
  read_data CPU = 0.009 seconds
############### create plasma molecules
molecule	h h.mol
Read molecule template h:
  1 molecules
  0 fragments
  1 atoms with max type 1
  0 bonds with max type 0
  0 angles with max type 0
  0 dihedrals with max type 0
  0 impropers with max type 0
create_atoms 	 0 single 18.870981216430664 -9.463019371032715 -4.387540817260742 mol h 39802
Created 1 atoms
  using lattice units in orthogonal box = (-38.6636 -38.6636 -38.6636) to (38.6636 38.6636 38.6636)
  create_atoms CPU = 0.000 seconds
############## groups
group		heme id 3647 3648 3649 3650 3651
5 atoms in group heme
group		S_cys id 309
1 atoms in group S_cys
group		fix union heme S_cys
6 atoms in group fix
group		rest subtract all fix
3715 atoms in group rest
group		plasma id > 3720
1 atoms in group plasma
group		enzyme subtract all plasma
3720 atoms in group enzyme
############### potenital
pair_style      reaxff NULL checkqeq no safezone 1.6 mincap 100 minhbonds 150
pair_coeff      * * protein2013.ff H C N O S X X Cl # ff, elements in the right order, X for Fe
#fix             QEq rest qeq/reax 1 0.0 10.0 1e-6 reaxff

neighbor        2 bin
neigh_modify    every 10 delay 0 check no
############### ensemble
fix		nve all nve #thermodyn ensemble fix
fix             langv all langevin 300.0 300.0 100.0 846321
############### fix Fe and S
fix 		freeze fix setforce 0.0 0.0 0.0
velocity	fix set NULL NULL NULL
############### thermo
thermo		1  #saves thermo data all 100 iterations
thermo_style	custom step time temp pe ke etotal vol density #defines which parameters in thermo
variable	step equal step #make variable of parameter in thermo
variable	time equal time
variable	temp equal temp
variable	pe equal pe
variable	ke equal ke
variable	etotal equal etotal
variable	vol equal vol
variable	density equal density
################ print
fix		thermolog1 all print 1 		"${step} ${time} ${temp} ${pe} ${ke} ${etotal} ${vol} ${density}" 		append thermolog1 screen no title "#step time temp epot ekin etotal volume density"
		#saves the variables of thermo into an extra file
fix		etot all print 1 "${etotal}" append etot screen no title '#etotal'
############### dump
dump            traj all custom 1 traj.lmp id mol type element 		x y z vx vy vz q #v_AtomPE v_AtomS #trajecory files
dump_modify     traj append yes element H C N O S Mg Fe Cl #names elements in dump file correctly
############### run
timestep	0.15 #in fs
run		0 post no #number of iterations

CITE-CITE-CITE-CITE-CITE-CITE-CITE-CITE-CITE-CITE-CITE-CITE-CITE

Your simulation uses code contributions which should be cited:

- pair reaxff command:

@Article{Aktulga12,
 author = {H. M. Aktulga, J. C. Fogarty, S. A. Pandit, A. Y. Grama},
 title = {Parallel reactive molecular dynamics: Numerical methods and algorithmic techniques},
 journal = {Parallel Computing},
 year =    2012,
 volume =  38,
 pages =   {245--259}
}

CITE-CITE-CITE-CITE-CITE-CITE-CITE-CITE-CITE-CITE-CITE-CITE-CITE

Neighbor list info ...
  update every 10 steps, delay 0 steps, check no
  max neighbors/atom: 2000, page size: 100000
  master list distance cutoff = 12
  ghost atom cutoff = 12
  binsize = 6, bins = 13 13 13
  1 neighbor lists, perpetual/occasional/extra = 1 0 0
  (1) pair reaxff, perpetual
      attributes: half, newton off, ghost
      pair build: half/bin/newtoff/ghost
      stencil: full/ghost/bin/3d
      bin: standard
Per MPI rank memory allocation (min/avg/max) = 78.53 | 78.53 | 78.53 Mbytes
   Step          Time           Temp          PotEng         KinEng         TotEng         Volume        Density    
         0   0              303.42847     -408568.65      3364.601      -405204.05      462377.67      0.095539871  
Loop time of 6.62e-07 on 1 procs for 0 steps with 3721 atoms

Total wall time: 0:00:00
