# LAMMPS data file written by OVITO Basic 3.7.4
3720 atoms
8 atom types
-38.6636 38.6636 xlo xhi
-38.6636 38.6636 ylo yhi
-38.6636 38.6636 zlo zhi

Masses

1 1.00794  # H
2 12.0107  # C
3 14.0067  # N
4 15.9994  # O
5 32.065  # S
6 24.305  # Mg
7 55.845  # Fe
8 35.453  # Cl

Atoms  # full

1 1 3 -0.725512 19.426 -11.8514 -6.02769
2 1 1 0.361385 20.409 -11.5338 -5.58067
3 1 1 0.344833 18.8098 -12.0025 -5.1568
4 1 1 0.345404 19.7003 -12.9007 -6.35365
5 1 2 0.103647 18.7167 -11.1652 -7.16753
6 1 1 0.135526 18.9474 -10.0909 -6.92226
7 1 2 -0.146226 19.3667 -11.697 -8.48355
8 1 1 0.181054 20.495 -11.7986 -8.35324
9 1 1 0.122548 19.0155 -12.7439 -8.76622
10 1 1 0.125165 19.203 -10.9893 -9.35572
11 1 2 0.559899 17.2345 -11.6851 -7.05033
12 1 4 -0.583902 17.0139 -12.8 -6.61221
13 2 3 -0.607082 16.319 -10.7714 -7.44137
14 2 1 0.321625 16.553 -9.76258 -7.68568
15 2 2 0.117051 14.9894 -11.1482 -7.03724
16 2 1 0.134628 15.1565 -11.79 -6.11228
17 2 2 -0.117503 14.1584 -9.75163 -6.97852
18 2 1 0.0981285 13.0145 -9.86184 -7.04381
19 2 1 0.139042 14.4813 -9.07454 -7.79315
20 2 2 -0.0828913 14.4571 -9.11172 -5.67876
21 2 1 0.158126 15.569 -8.90091 -5.5942
22 2 2 -0.195178 13.6336 -7.83055 -5.52208
23 2 1 0.0862238 13.6385 -7.44062 -4.49864
24 2 1 0.150854 14.0558 -7.04493 -6.19112
25 2 1 0.0751128 12.5424 -7.93144 -5.76801
26 2 2 -0.18734 14.1175 -10.0376 -4.48471
27 2 1 0.106173 14.3695 -11.1065 -4.69941
28 2 1 0.15228 14.591 -9.69982 -3.52858
29 2 1 0.0920262 13.0282 -10.0716 -4.31678
30 2 2 0.579835 14.3228 -12.0542 -8.16114
31 2 4 -0.565375 13.7467 -11.6032 -9.11301
32 3 3 -0.623575 14.2695 -13.3783 -7.74517
33 3 1 0.334267 14.4508 -13.5708 -6.73591
34 3 2 0.121017 13.3451 -14.1723 -8.54369
35 3 1 0.133262 13.5999 -14.0099 -9.58942
36 3 2 -0.140247 13.5995 -15.6171 -7.92917
37 3 1 0.130636 13.1968 -15.7132 -6.89634
38 3 1 0.142357 14.6751 -15.7236 -7.82351
39 3 2 0.62923 12.99 -16.6746 -8.88786
40 3 4 -0.627545 11.8933 -16.3555 -9.3665
41 3 4 -0.56672 13.4549 -17.9016 -8.82228
42 3 2 0.615629 11.842 -13.7151 -8.1479
43 3 4 -0.546142 11.6028 -13.7507 -6.96702
44 4 3 -0.613048 10.9862 -13.3691 -9.11069
45 4 1 0.31363 11.1807 -13.3025 -10.1346
46 4 2 0.104845 9.54349 -13.256 -8.74099
47 4 1 0.143354 9.5587 -13.0769 -7.65103
48 4 2 -0.148613 8.96067 -11.9662 -9.46794
49 4 1 0.0758809 7.80667 -11.8965 -9.43442
50 4 1 0.112829 9.25495 -12.063 -10.5346
51 4 2 -0.0170612 9.66736 -10.6382 -9.12447
52 4 2 -0.0425256 10.8534 -10.4411 -9.87821
53 4 1 0.137241 11.2139 -11.1813 -10.617
54 4 2 -0.0356426 11.6876 -9.31347 -9.74771
55 4 1 0.165538 12.5769 -9.24117 -10.3918
56 4 2 -0.0793596 11.3648 -8.41078 -8.73221
57 4 1 0.104302 11.9907 -7.49706 -8.61244
58 4 2 -0.0942436 9.34162 -9.74368 -8.05428
59 4 1 0.0869093 8.40957 -9.93888 -7.53077
60 4 2 -0.0947676 10.2994 -8.71937 -7.83733
61 4 1 0.066397 10.0701 -7.92918 -7.12289
62 4 2 0.546327 8.73142 -14.5528 -9.18333
63 4 4 -0.640762 7.52195 -14.4793 -9.0953
64 5 3 -0.657051 9.42566 -15.5065 -9.85577
65 5 1 0.346538 10.4293 -15.5395 -9.80001
66 5 2 0.112084 8.61456 -16.7113 -10.0186
67 5 1 0.175821 7.65842 -16.2658 -10.2893
68 5 2 0.112414 9.37146 -17.2826 -11.2642
69 5 1 0.130094 9.8339 -16.5542 -11.9795
70 5 1 0.150689 8.73409 -17.9635 -11.9163
71 5 4 -0.647395 10.6017 -18.096 -10.9884
72 5 1 0.384281 11.1139 -17.4473 -10.4545
73 5 2 0.593692 8.65309 -17.7018 -8.75123
74 5 4 -0.567934 8.22271 -18.8229 -8.9017
75 6 3 -0.620158 9.24171 -17.2533 -7.61018
76 6 1 0.268186 9.4926 -16.2475 -7.75083
77 6 2 0.142357 9.06617 -18.0711 -6.38956
78 6 1 0.172911 8.71081 -19.089 -6.80714
79 6 2 -0.1044 10.4698 -18.0365 -5.68229
80 6 1 0.150137 10.5096 -18.6534 -4.79341
81 6 1 0.169991 10.757 -16.9747 -5.37677
82 6 2 -0.124285 11.5175 -18.6185 -6.68988
83 6 1 0.16052 12.5703 -18.3043 -6.24615
84 6 1 0.153909 11.4934 -18.0894 -7.65042
85 6 2 -0.111385 11.4438 -20.1589 -6.87603
86 6 1 0.113391 11.7656 -20.5737 -5.88317
87 6 1 0.13273 10.4086 -20.4489 -6.83974
88 6 2 0.0888107 12.3673 -20.8491 -7.92943
89 6 1 0.150332 11.8951 -20.7911 -8.93859
90 6 1 0.137416 12.7244 -21.8669 -7.52295
91 6 3 -0.713248 13.753 -20.1851 -8.01916
92 6 1 0.361335 13.8452 -19.3618 -8.78653
93 6 1 0.332962 14.3356 -19.8257 -7.15499
94 6 1 0.317502 14.4569 -20.9117 -8.43416
95 6 2 0.554793 8.10298 -17.2136 -5.44164
96 6 4 -0.596554 8.44032 -16.8776 -4.30161
97 7 3 -0.628888 6.8888 -16.9972 -5.93921
98 7 1 0.337391 6.62899 -17.1915 -6.94274
99 7 2 0.115745 5.92088 -16.3462 -5.11738
100 7 1 0.129826 6.504 -15.7569 -4.37132
101 7 2 -0.142466 5.09871 -15.3554 -6.06142
102 7 1 0.122429 4.70201 -16.1601 -6.75325
103 7 1 0.111626 5.80807 -14.6058 -6.55561
104 7 2 -0.0057784 3.96982 -14.575 -5.42837
105 7 2 0.155331 4.19758 -13.2308 -5.02401
106 7 1 0.10105 5.11277 -12.5928 -5.10877
107 7 3 -0.526872 3.0695 -12.6743 -4.57544
108 7 1 0.314561 2.98849 -11.651 -4.30281
109 7 2 0.185641 1.98835 -13.5964 -4.60475
110 7 2 -9.17623e-04 2.5599 -14.8199 -5.18241
111 7 2 -0.0601997 1.70186 -15.9482 -5.48538
112 7 1 0.120292 2.06207 -16.7814 -6.14806
113 7 2 -0.0475633 0.390695 -15.8588 -4.99667
114 7 1 0.156328 -0.148942 -16.8821 -5.03299
115 7 2 -0.0909808 0.655643 -13.5125 -4.13586
116 7 1 0.153482 0.192445 -12.6264 -3.60479
117 7 2 -0.0786567 -0.127086 -14.6668 -4.38464
118 7 1 0.160863 -1.2324 -14.6104 -4.05718
119 7 2 0.556699 4.78189 -17.3043 -4.54949
120 7 4 -0.536322 4.56887 -18.3243 -5.07144
121 6 3 -0.589949 4.16195 -16.8774 -3.37809
122 6 1 0.338397 4.29666 -15.9547 -2.99418
123 6 2 0.092955 3.07128 -17.8025 -2.93362
124 6 1 0.131797 2.39703 -17.9683 -3.81395
125 6 2 -0.127088 3.70843 -19.1423 -2.44468
126 6 1 0.162103 4.67963 -19.2808 -3.04772
127 6 1 0.148736 3.01968 -20.039 -2.77479
128 6 2 -0.145905 3.92656 -19.4957 -0.952572
129 6 1 0.117536 3.40652 -20.4348 -0.687274
130 6 1 0.129501 3.44569 -18.812 -0.156247
131 6 2 -0.0950878 5.52164 -19.5788 -0.9292
132 6 1 0.154361 5.8728 -20.3784 -1.60422
133 6 1 0.144761 5.98353 -18.568 -1.30454
134 6 2 0.0690873 5.85434 -19.9584 0.516914
135 6 1 0.133775 5.47403 -20.9369 0.81197
136 6 1 0.135456 5.71984 -19.1648 1.2936
137 6 3 -0.712596 7.39512 -19.9389 0.596877
138 6 1 0.31639 7.70883 -19.5122 1.61527
139 6 1 0.326569 7.98729 -20.8263 0.405667
140 6 1 0.269667 7.84654 -19.1608 -0.0141506
141 6 2 0.545921 2.35781 -17.0108 -1.77888
142 6 4 -0.565253 2.9159 -16.1461 -1.10685
143 8 3 -0.597724 1.09715 -17.4004 -1.49713
144 8 1 0.29731 0.649162 -18.2217 -1.89577
145 8 2 0.117395 0.284805 -16.3247 -0.928226
146 8 1 0.112126 0.671073 -15.3269 -1.23118
147 8 2 0.138247 -1.2387 -16.6593 -1.21505
148 8 1 0.119982 -1.35969 -17.0459 -2.27158
149 8 4 -0.605111 -1.91375 -15.4203 -1.0738
150 8 1 0.340597 -2.47374 -15.2985 -1.99103
151 8 2 -0.141875 -1.72975 -17.7752 -0.220549
152 8 1 0.121663 -1.01541 -18.595 -0.296467
153 8 1 0.162341 -1.80969 -17.5237 0.896715
154 8 1 0.15683 -2.69964 -18.1693 -0.529277
155 8 2 0.589378 0.474232 -16.4285 0.666133
156 8 4 -0.575557 1.01913 -17.3529 1.23928
157 9 3 -0.606205 -0.156636 -15.4079 1.2546
158 9 1 0.286876 -0.676607 -14.8022 0.666588
159 9 2 0.120026 -0.0090984 -15.4337 2.73957
160 9 1 0.120241 1.11376 -15.4751 2.971
161 9 2 -0.140286 -0.869506 -14.1374 3.13005
162 9 1 0.104261 -0.386227 -13.2969 2.58252
163 9 1 0.12468 -0.846203 -13.8526 4.18064
164 9 2 -0.0989503 -2.30449 -14.4074 2.57625
165 9 1 0.122056 -2.80001 -15.2991 3.11257
166 9 1 0.147228 -2.34055 -14.5847 1.47778
167 9 2 0.0728495 -3.20341 -13.1764 2.98041
168 9 1 0.147412 -3.09103 -13.0624 4.10994
169 9 1 0.170005 -4.27098 -13.1652 2.70119
170 9 3 -0.615896 -2.73209 -12.0297 2.18397
171 9 1 0.341831 -2.39895 -12.0656 1.24307
172 9 2 0.740438 -2.66295 -10.8216 2.93521
173 9 3 -0.731855 -3.17774 -10.6762 4.19001
174 9 1 0.302003 -3.67383 -11.4759 4.56081
175 9 1 0.35065 -3.1295 -9.90698 4.90845
176 9 3 -0.729162 -2.02118 -9.82194 2.29219
177 9 1 0.355412 -1.56607 -9.54648 1.38909
178 9 1 0.298104 -2.01184 -9.06228 2.96228
179 9 2 0.58373 -0.660575 -16.7137 3.38179
180 9 4 -0.574132 -1.66418 -17.1907 2.85591
181 10 3 -0.608756 -0.138483 -17.0856 4.55961
182 10 1 0.320465 0.701872 -16.714 5.06621
183 10 2 0.111348 -0.552963 -18.3981 5.03763
184 10 1 0.135872 -1.40053 -18.7397 4.427
185 10 2 -0.136439 0.747143 -19.3202 4.93789
186 10 1 0.119494 0.673415 -20.3099 5.42588
187 10 1 0.10435 1.65088 -18.8292 5.39047
188 10 2 -0.129269 1.00963 -19.5152 3.40397
189 10 1 0.115908 2.04226 -19.9108 3.1701
190 10 1 0.161783 1.03963 -18.5502 2.87688
191 10 2 0.638358 -0.0449851 -20.4902 2.82196
192 10 4 -0.564178 -1.055 -20.7563 3.438
193 10 3 -0.679373 0.407723 -21.1397 1.73933
194 10 1 0.324944 1.35381 -21.0138 1.30975
195 10 1 0.327183 -0.0493203 -21.9412 1.16162
196 10 2 0.49329 -1.03352 -18.31 6.56706
197 10 4 -0.584022 -0.449397 -17.4235 7.19325
198 11 3 -0.532357 -1.70105 -19.3746 6.98265
199 11 2 0.0560791 -2.29267 -20.4074 6.15052
200 11 1 0.12709 -3.01682 -19.9019 5.45763
201 11 1 0.136136 -1.49186 -20.8986 5.57939
202 11 2 0.0868922 -1.99517 -19.4672 8.40129
203 11 1 0.139201 -2.82995 -18.8187 8.59647
204 11 2 -0.0981374 -2.11674 -21.0616 8.45256
205 11 1 0.172579 -2.49983 -21.4393 9.49075
206 11 1 0.119395 -1.14335 -21.5874 8.25397
207 11 2 -0.0897426 -3.02911 -21.3257 7.2214
208 11 1 0.120901 -4.0646 -20.9731 7.49807
209 11 1 0.171881 -3.13578 -22.4129 6.99986
210 11 2 0.61795 -0.59137 -19.1475 9.06567
211 11 4 -0.578522 0.403836 -19.8068 8.91226
212 12 3 -0.615912 -0.748043 -18.1238 9.94091
213 12 1 0.305295 -1.66233 -17.5464 9.95879
214 12 2 0.0730266 0.288717 -17.9083 10.9708
215 12 1 0.149603 -0.3052 -17.4772 11.8361
216 12 1 0.139882 0.717937 -18.8497 11.335
217 12 2 0.558286 1.45852 -17.0041 10.462
218 12 4 -0.60531 2.29655 -16.539 11.2319
219 13 3 -0.567527 1.45674 -16.7244 9.13287
220 13 1 0.341515 0.715661 -16.9638 8.42601
221 13 2 0.090233 2.3468 -15.5475 8.90473
222 13 1 0.100105 3.2147 -15.6334 9.57958
223 13 2 -0.153853 2.76388 -15.5584 7.36319
224 13 1 0.130415 3.69168 -14.946 7.16587
225 13 1 0.113046 1.92133 -15.2262 6.68372
226 13 2 -0.141296 3.07372 -17.0397 7.02913
227 13 1 0.113559 2.26905 -17.7392 7.2831
228 13 1 0.144218 3.94029 -17.3739 7.5363
229 13 2 0.623678 3.3539 -16.9014 5.4535
230 13 4 -0.627529 2.34969 -16.7644 4.68438
231 13 4 -0.587195 4.5788 -16.9282 5.0959
232 13 2 0.587945 1.5161 -14.2975 9.37307
233 13 4 -0.582763 0.334288 -14.1581 9.15375
234 4 3 -0.589114 2.38528 -13.3735 9.89905
235 4 1 0.298953 3.4397 -13.4215 10.0413
236 4 2 0.12637 1.68408 -12.075 10.0044
237 4 1 0.140538 0.668165 -12.2073 10.4922
238 4 2 -0.141066 2.68587 -11.156 10.8099
239 4 1 0.102227 2.22091 -10.1435 10.8301
240 4 1 0.0894387 3.70219 -11.0117 10.3813
241 4 2 0.00824282 2.79948 -11.6731 12.2802
242 4 2 -0.0247098 1.88483 -12.3814 13.0935
243 4 1 0.165025 0.953085 -12.8576 12.648
244 4 2 -0.0328844 2.05985 -12.3369 14.5025
245 4 1 0.133462 1.3418 -12.8029 15.1851
246 4 2 -0.0510314 3.22404 -11.8411 15.1735
247 4 1 0.10317 3.33201 -11.8634 16.2782
248 4 2 -0.0923917 3.91031 -11.0355 12.8909
249 4 1 0.121735 4.72657 -10.6167 12.2684
250 4 2 -0.0702533 4.10814 -11.1802 14.2837
251 4 1 0.0990338 4.98939 -10.7743 14.7195
252 4 2 0.552179 1.63878 -11.3946 8.57104
253 4 4 -0.569613 2.44774 -11.6223 7.70486
254 9 3 -0.569291 0.565581 -10.5505 8.45732
255 9 1 0.332667 -0.262979 -10.5803 9.13848
256 9 2 0.0838232 0.492407 -9.82693 7.18139
257 9 1 0.0857213 1.51978 -9.87012 6.74472
258 9 2 -0.123726 -0.591492 -10.4981 6.24288
259 9 1 0.122643 -0.988499 -9.68823 5.5866
260 9 1 0.146588 -1.44239 -10.8428 6.87386
261 9 2 -0.127638 0.085498 -11.5776 5.3598
262 9 1 0.114324 -0.770171 -12.03 4.77583
263 9 1 0.153931 0.424202 -12.3555 6.03063
264 9 2 0.076774 1.22294 -11.0463 4.38412
265 9 1 0.0996938 2.09072 -10.5796 4.95184
266 9 1 0.105948 0.827076 -10.4083 3.58252
267 9 3 -0.645259 1.75637 -12.1995 3.69885
268 9 1 0.276001 1.35444 -12.4399 2.83169
269 9 2 0.727037 2.77317 -12.9297 3.89091
270 9 3 -0.710399 3.50891 -12.8558 5.11253
271 9 1 0.312363 3.18293 -12.3497 5.9473
272 9 1 0.328565 4.03163 -13.6544 5.47455
273 9 3 -0.728158 3.15107 -13.8258 2.87902
274 9 1 0.337493 2.6112 -13.91 2.01772
275 9 1 0.272439 3.99883 -14.3676 2.84956
276 9 2 0.564431 0.0742696 -8.33432 7.43987
277 9 4 -0.565751 -0.681356 -8.00215 8.31543
278 1 3 -0.589607 0.508324 -7.47039 6.45641
279 1 1 0.294819 1.22071 -7.8376 5.80027
280 1 2 0.104723 0.311623 -6.04539 6.71799
281 1 1 0.118243 0.286082 -5.90043 7.84142
282 1 2 -0.243416 1.4373 -5.29541 5.90739
283 1 1 0.0984944 1.6587 -5.78365 4.96695
284 1 1 0.0695508 1.27374 -4.21262 5.733
285 1 1 0.0622597 2.37925 -5.30831 6.4271
286 1 2 0.54792 -1.09572 -5.59192 6.09829
287 1 4 -0.594845 -1.79663 -6.33303 5.37579
288 11 3 -0.481899 -1.399 -4.37059 6.38236
289 11 2 0.0465986 -0.819654 -3.50627 7.43036
290 11 1 0.125797 -0.882324 -4.05297 8.42856
291 11 1 0.0710216 0.263005 -3.2854 7.27157
292 11 2 0.072712 -2.46373 -3.80788 5.55164
293 11 1 0.126706 -3.15193 -4.65171 5.26109
294 11 2 -0.0899636 -2.96745 -2.75915 6.6291
295 11 1 0.141377 -3.52885 -3.3192 7.4955
296 11 1 0.131006 -3.64489 -2.05494 6.10632
297 11 2 -0.0843265 -1.67316 -2.18168 7.23135
298 11 1 0.0847577 -1.78097 -1.58357 8.20882
299 11 1 0.1602 -1.15315 -1.51149 6.51056
300 11 2 0.526773 -1.83391 -3.02546 4.29522
301 11 4 -0.483892 -2.0874 -1.84529 4.07691
302 14 3 -0.566843 -0.96405 -3.67466 3.54746
303 14 1 0.247996 -0.91824 -4.68199 3.72073
304 14 2 0.0902346 -0.281238 -3.01545 2.41966
305 14 1 0.112359 -0.699373 -2.06401 2.23758
306 14 2 -0.199267 1.23854 -3.00585 2.79653
307 14 1 0.118844 1.62906 -4.13134 2.57695
308 14 1 0.121629 1.3603 -2.91168 3.87058
309 14 5 0.0 1.9864 -1.6436 1.8664
310 14 2 0.547267 -0.136467 -3.92761 1.12515
311 14 4 -0.561532 0.605787 -4.87974 1.33465
312 11 3 -0.494336 -0.403073 -3.33373 -0.0296172
313 11 2 0.0516468 -0.746317 -1.91273 -0.121108
314 11 1 0.0967197 -1.82162 -1.7808 0.117133
315 11 1 0.127803 -0.128801 -1.30262 0.581559
316 11 2 0.123473 -0.219988 -3.94222 -1.31602
317 11 1 0.110996 -0.809426 -4.90478 -1.34992
318 11 2 -0.147328 -0.684226 -2.83695 -2.38096
319 11 1 0.103362 -1.77352 -2.95278 -2.60539
320 11 1 0.0795803 -0.15111 -2.9155 -3.40572
321 11 2 -0.116419 -0.416968 -1.50166 -1.61778
322 11 1 0.0992453 -1.01198 -0.634786 -2.09916
323 11 1 0.124788 0.646595 -1.18697 -1.7322
324 11 2 0.547242 1.33572 -4.13777 -1.57237
325 11 4 -0.615394 1.49788 -4.92618 -2.49115
326 1 3 -0.567905 2.22628 -3.36289 -0.921552
327 1 1 0.251021 1.96017 -2.71755 -0.09321
328 1 2 0.0721335 3.57913 -3.61862 -1.30437
329 1 1 0.10291 3.46143 -4.17284 -2.28008
330 1 2 -0.157285 4.02958 -2.11378 -1.55424
331 1 1 0.0849169 4.9535 -1.99844 -2.17519
332 1 1 0.126903 3.24862 -1.53041 -2.04681
333 1 1 0.159259 4.21103 -1.66812 -0.599873
334 1 2 0.519006 4.51507 -4.31398 -0.238057
335 1 4 -0.578535 5.50039 -4.95272 -0.570129
336 15 3 -0.521479 4.26553 -3.94685 1.05975
337 15 1 0.219661 3.47023 -3.24039 1.43938
338 15 2 0.109957 5.01406 -4.80282 2.03173
339 15 1 0.116033 6.11845 -4.66952 1.78866
340 15 2 -0.156345 4.41805 -4.41697 3.43823
341 15 1 0.0651324 4.91437 -5.01286 4.26962
342 15 1 0.0681335 3.36901 -4.71375 3.56006
343 15 2 -0.059137 4.64262 -2.88573 3.78175
344 15 1 0.0726576 4.32154 -2.57106 4.84485
345 15 1 0.136778 4.01072 -2.17469 3.11075
346 15 5 -0.17011 6.44829 -2.85817 3.55403
347 15 2 -0.181764 7.01246 -4.21933 4.76137
348 15 1 0.065043 6.07619 -4.76828 5.08496
349 15 1 0.0659765 7.73174 -4.89153 4.35923
350 15 1 0.0648706 7.42187 -3.88395 5.6917
351 15 2 0.501345 4.52001 -6.25761 1.88453
352 15 4 -0.573341 5.2573 -7.2502 2.05051
353 16 3 -0.604232 3.20246 -6.42791 1.44843
354 16 1 0.295569 2.58213 -5.6509 1.27973
355 16 2 0.108061 2.80508 -7.82327 1.46119
356 16 1 0.125786 3.44925 -8.31501 2.29935
357 16 2 -0.139331 1.27044 -7.92477 1.7899
358 16 1 0.11074 0.890948 -8.88513 1.47031
359 16 1 0.136279 0.761792 -7.22799 1.14016
360 16 2 0.594085 0.939025 -7.7817 3.3402
361 16 4 -0.612529 1.61719 -8.27412 4.1854
362 16 3 -0.703785 -0.286686 -7.23662 3.49114
363 16 1 0.267088 -1.0202 -6.85447 2.87319
364 16 1 0.348228 -0.678496 -7.12005 4.45225
365 16 2 0.548238 2.98231 -8.58008 0.0517083
366 16 4 -0.574996 3.08525 -9.79114 0.108681
367 5 3 -0.600163 2.9313 -7.83058 -1.05296
368 5 1 0.255479 2.91856 -6.81732 -0.948017
369 5 2 0.100858 3.7491 -8.43661 -2.12261
370 5 1 0.146001 3.25971 -9.49746 -2.13184
371 5 2 0.0875951 3.54408 -7.51639 -3.39645
372 5 1 0.0891704 3.83129 -8.06473 -4.3735
373 5 1 0.0573022 4.20042 -6.60178 -3.33352
374 5 4 -0.593143 2.15761 -7.1962 -3.69674
375 5 1 0.36859 2.06281 -6.30374 -3.14368
376 5 2 0.5013 5.30415 -8.50937 -1.87725
377 5 4 -0.58152 5.93512 -9.1485 -2.70428
378 2 3 -0.575428 5.9021 -7.74416 -0.921272
379 2 1 0.284491 5.26093 -7.23188 -0.253351
380 2 2 0.114346 7.22169 -8.21819 -0.611833
381 2 1 0.10297 7.68631 -8.39167 -1.5936
382 2 2 -0.137238 7.9331 -7.18772 0.379814
383 2 1 0.0829288 8.94735 -7.54652 0.701083
384 2 1 0.120109 7.38555 -6.99507 1.35302
385 2 2 -0.0700015 8.18539 -5.81997 -0.250567
386 2 1 0.174348 7.22472 -5.43055 -0.650479
387 2 2 -0.216288 8.772 -4.99209 0.890804
388 2 1 0.0712721 9.78967 -5.23476 1.17417
389 2 1 0.0824702 8.70931 -3.85789 0.599798
390 2 1 0.0777197 8.10897 -5.11481 1.7214
391 2 2 -0.20358 9.23156 -5.86385 -1.31977
392 2 1 0.123447 8.83883 -6.56201 -2.14031
393 2 1 0.093362 9.51264 -4.79268 -1.71123
394 2 1 0.061012 10.2907 -6.28484 -0.9999
395 2 2 0.56775 7.03228 -9.56867 0.268588
396 2 4 -0.601159 7.9307 -10.3694 0.14562
397 1 3 -0.597475 5.94798 -9.75638 1.0378
398 1 1 0.313846 5.39353 -8.9701 1.30465
399 1 2 0.113673 5.90495 -11.0775 1.61071
400 1 1 0.124283 6.9518 -11.2721 1.88628
401 1 2 -0.197245 4.78349 -11.0183 2.73019
402 1 1 0.0784914 4.8104 -10.0396 3.35505
403 1 1 0.125343 3.75998 -10.9376 2.26912
404 1 1 0.0962772 4.82268 -11.855 3.46151
405 1 2 0.567075 5.66247 -12.3216 0.646794
406 1 4 -0.596999 6.32275 -13.3281 0.75117
407 16 3 -0.625866 4.71545 -12.0616 -0.278345
408 16 1 0.33292 4.21738 -11.1601 -0.247725
409 16 2 0.115894 4.29653 -13.2147 -1.081
410 16 1 0.150767 4.4356 -13.9268 -0.250762
411 16 2 -0.152528 2.84789 -13.0931 -1.67888
412 16 1 0.107951 2.57616 -14.0349 -2.17732
413 16 1 0.10732 2.73268 -12.2838 -2.49952
414 16 2 0.625284 1.82862 -12.718 -0.566773
415 16 4 -0.552629 1.86367 -13.1024 0.582333
416 16 3 -0.695904 0.669453 -12.2767 -1.11975
417 16 1 0.289929 0.575423 -11.8649 -2.06888
418 16 1 0.369339 -0.257985 -12.3514 -0.67819
419 16 2 0.560712 5.35913 -13.5048 -2.21967
420 16 4 -0.5935 5.32121 -14.5451 -2.8363
421 17 3 -0.59667 6.40423 -12.6424 -2.33899
422 17 1 0.283627 6.38743 -11.8875 -1.65792
423 17 2 0.117436 7.51688 -13.0103 -3.17046
424 17 1 0.10589 7.15678 -13.8255 -3.86313
425 17 2 -0.131375 7.92819 -11.6249 -3.8272
426 17 1 0.131253 9.0092 -11.7291 -4.12695
427 17 1 0.118589 7.73394 -10.7875 -3.09292
428 17 3 -0.573177 7.1697 -12.1539 -6.20062
429 17 1 0.290106 7.68545 -13.0115 -6.32202
430 17 2 0.182271 7.08033 -11.3912 -5.10616
431 17 2 0.329966 6.40015 -11.6597 -7.19622
432 17 1 0.0904816 6.2289 -12.1337 -8.22041
433 17 3 -0.429055 5.74176 -10.597 -6.69943
434 17 2 0.104843 6.08663 -10.4234 -5.44439
435 17 1 0.0975983 5.55536 -9.65167 -4.88285
436 17 2 0.561883 8.75084 -13.4428 -2.26071
437 17 4 -0.565181 9.81327 -13.3512 -2.8334
438 12 3 -0.632835 8.56795 -13.8574 -0.972001
439 12 1 0.310661 7.61718 -13.8215 -0.57869
440 12 2 0.0789168 9.88816 -14.1244 -0.347649
441 12 1 0.125685 9.64568 -14.6411 0.616441
442 12 1 0.14516 10.3609 -14.965 -0.955983
443 12 2 0.563293 10.8275 -12.9188 -0.202647
444 12 4 -0.568818 12.0366 -13.1054 -0.0218168
445 4 3 -0.575235 10.2657 -11.6614 -0.183152
446 4 1 0.321452 9.26096 -11.507 -0.411625
447 4 2 0.123225 11.1405 -10.5253 -0.375952
448 4 1 0.14669 12.1209 -10.9481 -0.776403
449 4 2 -0.157677 10.4406 -9.49805 -1.35762
450 4 1 0.0631228 10.9508 -8.49921 -1.42368
451 4 1 0.104566 9.36904 -9.29777 -1.09298
452 4 2 -0.0223354 10.4813 -10.0922 -2.79112
453 4 2 -0.108711 9.71022 -9.39508 -3.82205
454 4 1 0.0803955 8.9477 -8.60931 -3.56754
455 4 2 -0.0942297 9.87428 -9.86581 -5.14774
456 4 1 0.0775746 9.19677 -9.39609 -5.94648
457 4 2 -0.067909 10.7175 -10.9383 -5.47901
458 4 1 0.12454 10.7731 -11.3739 -6.48319
459 4 2 -0.0336455 11.3474 -11.2009 -3.10421
460 4 1 0.133073 11.8845 -11.754 -2.33133
461 4 2 -0.0550816 11.4695 -11.5931 -4.45729
462 4 1 0.140531 12.1637 -12.4763 -4.73342
463 4 2 0.548147 11.3541 -9.82653 1.04611
464 4 4 -0.57043 12.423 -9.26771 1.13837
465 18 3 -0.560961 10.2814 -9.74203 1.87512
466 18 1 0.306747 9.58968 -10.4956 1.60368
467 18 2 0.0861421 10.6655 -9.71792 3.27657
468 18 1 0.13147 11.7398 -9.36276 3.29966
469 18 2 -0.0928225 9.70502 -8.70469 4.06966
470 18 1 0.0675372 9.86375 -8.87838 5.16577
471 18 2 -0.219177 10.2044 -7.28705 3.60159
472 18 1 0.0656142 9.47255 -6.40998 3.71032
473 18 1 0.0582344 11.2154 -7.06619 4.07343
474 18 1 0.0982436 10.3747 -7.28826 2.53002
475 18 2 -0.107807 8.24122 -9.06431 3.69888
476 18 1 0.106114 8.12793 -10.1265 3.843
477 18 1 0.118202 8.08745 -9.0117 2.61018
478 18 2 -0.201982 7.20292 -8.22324 4.52665
479 18 1 0.0902471 6.12785 -8.64022 4.4305
480 18 1 0.0680023 7.45571 -8.26332 5.59978
481 18 1 0.0869915 7.15441 -7.14383 4.23526
482 18 2 0.508299 10.5179 -11.2367 3.82383
483 18 4 -0.52394 9.84525 -12.0091 3.20458
484 11 3 -0.472895 11.0359 -11.468 5.04055
485 11 2 -0.00604658 11.8426 -10.4929 5.73349
486 11 1 0.124176 12.5156 -9.93933 5.02401
487 11 1 0.0623737 11.108 -9.78042 6.12184
488 11 2 0.112218 10.7534 -12.6837 5.78451
489 11 1 0.152593 11.3741 -13.4939 5.38096
490 11 2 -0.0658387 11.2842 -12.2636 7.22492
491 11 1 0.166635 11.5552 -13.1813 7.89511
492 11 1 0.118172 10.4933 -11.7897 7.88907
493 11 2 -0.102305 12.4974 -11.3495 6.9267
494 11 1 0.169887 13.3594 -11.9989 6.56129
495 11 1 0.104491 12.8313 -10.7788 7.76846
496 11 2 0.567841 9.1824 -12.9173 5.88983
497 11 4 -0.571443 8.3974 -12.1792 6.45787
498 9 3 -0.5782 8.7993 -14.0844 5.25626
499 9 1 0.31591 9.4321 -14.6791 4.66421
500 9 2 0.11249 7.35149 -13.935 5.14182
501 9 1 0.113348 7.13975 -12.9013 4.79895
502 9 2 -0.131424 6.85193 -15.156 4.28228
503 9 1 0.112826 5.74812 -15.0681 4.20754
504 9 1 0.156113 7.12427 -16.0558 4.93986
505 9 2 -0.134589 7.42037 -15.2641 2.8517
506 9 1 0.11381 8.52486 -15.2053 2.68879
507 9 1 0.155425 6.96927 -14.4768 2.18522
508 9 2 0.111846 6.99214 -16.8058 2.48464
509 9 1 0.132632 7.49006 -17.359 3.2639
510 9 1 0.13328 7.30309 -17.1311 1.42055
511 9 3 -0.660735 5.64408 -16.7611 2.68519
512 9 1 0.332804 5.28392 -16.7426 3.72581
513 9 2 0.76288 4.76444 -16.8651 1.78483
514 9 3 -0.762383 5.14774 -16.9348 0.418178
515 9 1 0.32447 6.05056 -16.7728 -0.0170367
516 9 1 0.331363 4.37679 -16.7982 -0.198118
517 9 3 -0.758441 3.45068 -16.8772 2.25115
518 9 1 0.35858 3.12637 -16.6883 3.22743
519 9 1 0.347337 2.64758 -16.894 1.57982
520 9 2 0.590402 6.64309 -14.2689 6.52014
521 9 4 -0.593666 5.44223 -14.0691 6.49445
522 3 3 -0.602633 7.3965 -14.8566 7.50261
523 3 1 0.346939 8.45517 -14.8445 7.57215
524 3 2 0.108071 6.53794 -15.0002 8.68682
525 3 1 0.133316 5.69165 -15.6439 8.29381
526 3 2 -0.149666 7.38613 -15.9114 9.6353
527 3 1 0.1509 7.73992 -16.815 9.05287
528 3 1 0.115239 6.7186 -16.3388 10.4305
529 3 2 0.691029 8.62633 -15.1676 10.3395
530 3 4 -0.590593 8.50435 -13.9776 10.6571
531 3 4 -0.613511 9.53786 -15.9228 10.7601
532 3 2 0.603857 6.07518 -13.6045 9.25525
533 3 4 -0.635195 5.30881 -13.6101 10.174
534 12 3 -0.569249 6.75046 -12.5546 8.71512
535 12 1 0.323121 7.48676 -12.6354 7.97463
536 12 2 0.0468491 6.23771 -11.2233 9.08018
537 12 1 0.0816907 6.74903 -10.561 8.34203
538 12 1 0.0954008 5.1037 -11.2466 8.98159
539 12 2 0.550843 6.58809 -10.7989 10.5365
540 12 4 -0.616334 6.05412 -9.80793 11.053
541 9 3 -0.553111 7.35386 -11.6341 11.2603
542 9 1 0.353799 7.74392 -12.5243 10.877
543 9 2 0.103004 7.92499 -11.1268 12.4914
544 9 1 0.0970259 7.10757 -10.5447 12.9463
545 9 2 -0.146966 8.39206 -12.3667 13.3821
546 9 1 0.113595 9.10205 -12.0465 14.1825
547 9 1 0.129393 8.87566 -13.1904 12.8396
548 9 2 -0.135341 7.24502 -12.9228 14.2891
549 9 1 0.120164 6.79111 -12.0516 14.7677
550 9 1 0.164722 7.63934 -13.5049 15.1232
551 9 2 0.0683056 6.15145 -13.7372 13.4374
552 9 1 0.139235 6.61116 -14.6101 12.8249
553 9 1 0.115043 5.44288 -13.0784 12.8627
554 9 3 -0.599926 5.2002 -14.3853 14.3974
555 9 1 0.321487 5.22213 -14.3284 15.449
556 9 2 0.690684 4.11934 -14.8889 13.6696
557 9 3 -0.773117 4.01905 -14.7769 12.2734
558 9 1 0.3176 4.72885 -14.4199 11.6364
559 9 1 0.338238 3.28694 -15.2052 11.7548
560 9 3 -0.650709 3.11649 -15.3665 14.441
561 9 1 0.29162 2.83826 -15.555 15.5026
562 9 1 0.279293 2.44253 -15.6447 13.6697
563 9 2 0.56444 9.24741 -10.3099 12.2599
564 9 4 -0.555726 9.71148 -10.2852 11.1131
565 16 3 -0.62425 9.87016 -9.90606 13.3681
566 16 1 0.31899 9.40413 -9.8753 14.2646
567 16 2 0.0884718 11.3265 -9.8469 13.3196
568 16 1 0.0948669 11.5147 -9.55023 14.3554
569 16 2 -0.141762 11.8459 -11.3138 13.141
570 16 1 0.133736 12.9472 -11.4193 12.9136
571 16 1 0.112766 11.2726 -11.8758 12.3363
572 16 2 0.575521 11.5983 -11.9544 14.5651
573 16 4 -0.58545 11.3098 -11.4219 15.6004
574 16 3 -0.707183 11.6596 -13.3054 14.4419
575 16 1 0.330189 12.0443 -13.7686 13.6199
576 16 1 0.343221 11.5584 -13.9397 15.2692
577 16 2 0.568598 11.9684 -8.94997 12.1406
578 16 4 -0.572924 13.0589 -9.29207 11.7024
579 18 3 -0.579695 11.3401 -7.83934 11.796
580 18 1 0.342653 10.3784 -7.62938 12.2182
581 18 2 0.105212 11.8391 -7.20385 10.5716
582 18 1 0.089762 12.5543 -7.83069 10.0468
583 18 2 -0.0858912 10.6315 -6.67853 9.70454
584 18 1 0.135138 10.0216 -6.10077 10.4051
585 18 2 -0.215575 11.129 -5.75839 8.51908
586 18 1 0.0705646 11.9178 -6.22468 7.87575
587 18 1 0.0690491 10.3673 -5.46513 7.79992
588 18 1 0.124894 11.5563 -4.77501 8.88764
589 18 2 -0.130021 9.75171 -7.86821 9.16089
590 18 1 0.172413 9.80378 -8.69633 9.9807
591 18 1 0.0754449 10.1803 -8.23723 8.24508
592 18 2 -0.213266 8.23854 -7.62321 8.85277
593 18 1 0.0727052 7.94218 -8.10946 7.94027
594 18 1 0.0994401 7.56449 -8.00543 9.66663
595 18 1 0.0815108 8.07155 -6.56361 8.79042
596 18 2 0.569429 12.5751 -5.91196 11.1546
597 18 4 -0.592211 12.1257 -5.39825 12.1682
598 8 3 -0.588477 13.5201 -5.50381 10.3154
599 8 1 0.248583 13.7117 -6.04182 9.43541
600 8 2 0.0972752 14.4804 -4.45826 10.6534
601 8 1 0.112572 14.0906 -4.01229 11.5883
602 8 2 0.173259 15.8784 -5.15701 10.9879
603 8 1 0.121209 16.6045 -4.26135 11.0567
604 8 4 -0.627305 16.2872 -5.95963 9.88526
605 8 1 0.387023 15.9695 -6.88492 10.1302
606 8 2 -0.184366 15.7784 -6.03637 12.3027
607 8 1 0.146658 16.6645 -6.67824 12.4411
608 8 1 0.103957 15.6861 -5.36744 13.2112
609 8 1 0.0951317 14.8865 -6.71819 12.3065
610 8 2 0.53373 14.4021 -3.38359 9.52683
611 8 4 -0.551388 13.6288 -3.4719 8.60074
612 19 3 -0.608106 15.3633 -2.4014 9.69688
613 19 1 0.280221 15.9041 -2.47421 10.5384
614 19 2 0.111163 15.2044 -1.22788 8.80994
615 19 1 0.117876 14.2651 -1.34313 8.27403
616 19 2 -0.099281 15.374 0.0263371 9.70736
617 19 1 0.114852 16.2426 -0.210213 10.4085
618 19 2 -0.204361 15.7288 1.27333 8.92516
619 19 1 0.116932 16.3746 1.95221 9.4742
620 19 1 0.103964 16.4044 1.07466 8.06702
621 19 1 0.0893965 14.7576 1.80137 8.60621
622 19 2 -0.205784 14.2628 0.255151 10.6776
623 19 1 0.0824138 14.5703 1.14052 11.3773
624 19 1 0.128269 13.318 0.609298 10.1482
625 19 1 0.0810946 14.0988 -0.663395 11.3459
626 19 2 0.531924 16.3539 -1.24926 7.71658
627 19 4 -0.590575 15.8471 -1.08983 6.58367
628 1 3 -0.586266 17.6134 -1.53064 8.05185
629 1 1 0.307459 17.9392 -1.36094 9.06123
630 1 2 0.0868742 18.6083 -1.50725 6.97181
631 1 1 0.136068 18.2926 -0.610959 6.35115
632 1 2 -0.16369 20.0261 -1.36727 7.58241
633 1 1 0.105114 20.8179 -1.39896 6.79158
634 1 1 0.119548 20.1449 -0.312532 8.00784
635 1 1 0.137491 20.3357 -2.16575 8.29381
636 1 2 0.556315 18.3371 -2.78349 5.99696
637 1 4 -0.604197 18.561 -2.59931 4.81026
638 15 3 -0.605652 18.0121 -3.94782 6.54105
639 15 1 0.30852 17.9384 -3.96268 7.59137
640 15 2 0.0915774 17.3053 -4.97653 5.7142
641 15 1 0.143314 18.131 -5.35918 5.13424
642 15 2 -0.100471 16.7783 -5.8984 6.8681
643 15 1 0.136631 16.2993 -5.37336 7.73552
644 15 1 0.176208 17.699 -6.46531 7.26251
645 15 2 -0.0862319 15.7809 -6.8843 6.18447
646 15 1 0.134612 16.2384 -7.44681 5.32799
647 15 1 0.0802616 14.97 -6.32215 5.66636
648 15 5 -0.166355 15.226 -7.81173 7.68714
649 15 2 -0.148822 14.1757 -9.18883 7.10918
650 15 1 0.127602 13.9464 -9.86208 8.00483
651 15 1 0.051427 13.2804 -8.82335 6.5703
652 15 1 0.140426 14.6762 -9.83154 6.31009
653 15 2 0.550795 16.2447 -4.28452 4.80031
654 15 4 -0.591582 16.2138 -4.59926 3.61486
655 2 3 -0.588566 15.3256 -3.50368 5.38634
656 2 1 0.282071 15.4427 -3.16892 6.37774
657 2 2 0.108324 14.1532 -3.19379 4.60063
658 2 1 0.0929254 13.975 -4.16343 4.08862
659 2 2 -0.121809 13.0056 -2.58853 5.58833
660 2 1 0.146476 13.1843 -1.51239 5.80014
661 2 1 0.138432 12.9767 -3.02305 6.65571
662 2 2 -0.0796358 11.6187 -2.62759 5.04437
663 2 1 0.0994541 11.513 -2.15032 4.06466
664 2 2 -0.222626 11.1348 -4.05857 4.73276
665 2 1 0.0704344 11.2211 -4.76124 5.59478
666 2 1 0.0727145 10.084 -3.9864 4.37704
667 2 1 0.0638808 11.7342 -4.54612 3.92266
668 2 2 -0.205236 10.6366 -1.89512 5.89274
669 2 1 0.0755401 10.7552 -2.11219 7.00876
670 2 1 0.0939747 10.7292 -0.719917 5.81292
671 2 1 0.0672615 9.56478 -2.24422 5.82563
672 2 2 0.576292 14.5264 -2.04633 3.58452
673 2 4 -0.589878 13.9055 -1.904 2.55096
674 19 3 -0.577339 15.5179 -1.17752 3.88372
675 19 1 0.320768 16.008 -1.33405 4.81447
676 19 2 0.111174 15.7115 -0.134455 2.87789
677 19 1 0.13133 14.7188 0.303566 2.90284
678 19 2 -0.113695 16.7808 0.917922 3.36538
679 19 1 0.130959 17.7879 0.496807 3.46162
680 19 2 -0.168355 16.88 2.03264 2.2668
681 19 1 0.134413 17.3468 1.63344 1.33591
682 19 1 0.108112 15.9299 2.59864 1.96407
683 19 1 0.131043 17.4748 2.85034 2.70857
684 19 2 -0.171102 16.263 1.50672 4.71673
685 19 1 0.10242 15.2129 1.90668 4.67225
686 19 1 0.138897 16.2197 0.705415 5.5594
687 19 1 0.133084 16.8999 2.3522 5.06202
688 19 2 0.549133 16.054 -0.640228 1.39561
689 19 4 -0.583604 15.5395 -0.0146014 0.491834
690 11 3 -0.520851 16.8951 -1.65342 1.27843